Title: *
Date: Thu Mar 30 15:09:24 2017
Plotname: AC Analysis
Flags: complex forward log
No. Variables: 2
No. Points:         1298
Offset:   0.0000000000000000e+000
Command: Linear Technology Corporation LTspice IV
Variables:
	0	frequency	frequency
	1	I(V1)	device_current
Values:
0		4.000000000000000e+001,0.000000000000000e+000
	-2.735795529314601e+000,9.397366671955695e+000
1		4.043557144206802e+001,0.000000000000000e+000
	-2.681782779122727e+000,9.311652703081521e+000
2		4.087588594616467e+001,0.000000000000000e+000
	-2.628752595217293e+000,9.226415738833062e+000
3		4.132099516084914e+001,0.000000000000000e+000
	-2.576690511866786e+000,9.141662521929298e+000
4		4.177095129709655e+001,0.000000000000000e+000
	-2.525582140744859e+000,9.057399452959054e+000
5		4.222580713442228e+001,0.000000000000000e+000
	-2.475413176564985e+000,8.973632597878982e+000
6		4.268561602707294e+001,0.000000000000000e+000
	-2.426169402422715e+000,8.890367695497517e+000
7		4.315043191028479e+001,0.000000000000000e+000
	-2.377836694846678e+000,8.807610164937977e+000
8		4.362030930661030e+001,0.000000000000000e+000
	-2.330401028569668e+000,8.725365113072030e+000
9		4.409530333231363e+001,0.000000000000000e+000
	-2.283848481020414e+000,8.643637341916950e+000
10		4.457546970383570e+001,0.000000000000000e+000
	-2.238165236556824e+000,8.562431355989787e+000
11		4.506086474432968e+001,0.000000000000000e+000
	-2.193337590432861e+000,8.481751369611843e+000
12		4.555154539026767e+001,0.000000000000000e+000
	-2.149351952515758e+000,8.401601314157354e+000
13		4.604756919811931e+001,0.000000000000000e+000
	-2.106194850760744e+000,8.321984845241666e+000
14		4.654899435110310e+001,0.000000000000000e+000
	-2.063852934447596e+000,8.242905349842495e+000
15		4.705587966601126e+001,0.000000000000000e+000
	-2.022312977189017e+000,8.164365953350490e+000
16		4.756828460010885e+001,0.000000000000000e+000
	-1.981561879713695e+000,8.086369526544111e+000
17		4.808626925810814e+001,0.000000000000000e+000
	-1.941586672443805e+000,8.008918692484784e+000
18		4.860989439921877e+001,0.000000000000000e+000
	-1.902374517852195e+000,7.932015833328890e+000
19		4.913922144427481e+001,0.000000000000000e+000
	-1.863912712634033e+000,7.855663097052613e+000
20		4.967431248293937e+001,0.000000000000000e+000
	-1.826188689671881e+000,7.779862404086927e+000
21		5.021523028098766e+001,0.000000000000000e+000
	-1.789190019825355e+000,7.704615453859823e+000
22		5.076203828766934e+001,0.000000000000000e+000
	-1.752904413536044e+000,7.629923731242940e+000
23		5.131480064315115e+001,0.000000000000000e+000
	-1.717319722261323e+000,7.555788512900669e+000
24		5.187358218604040e+001,0.000000000000000e+000
	-1.682423939742307e+000,7.482210873539493e+000
25		5.243844846099059e+001,0.000000000000000e+000
	-1.648205203115822e+000,7.409191692055728e+000
26		5.300946572638967e+001,0.000000000000000e+000
	-1.614651793865733e+000,7.336731657580316e+000
27		5.358670096213214e+001,0.000000000000000e+000
	-1.581752138636375e+000,7.264831275419226e+000
28		5.417022187747573e+001,0.000000000000000e+000
	-1.549494809899329e+000,7.193490872888198e+000
29		5.476009691898365e+001,0.000000000000000e+000
	-1.517868526489565e+000,7.122710605041405e+000
30		5.535639527855330e+001,0.000000000000000e+000
	-1.486862154010282e+000,7.052490460292582e+000
31		5.595918690153247e+001,0.000000000000000e+000
	-1.456464705114399e+000,6.982830265928662e+000
32		5.656854249492383e+001,0.000000000000000e+000
	-1.426665339671786e+000,6.913729693515400e+000
33		5.718453353567882e+001,0.000000000000000e+000
	-1.397453364821445e+000,6.845188264194675e+000
34		5.780723227908189e+001,0.000000000000000e+000
	-1.368818234917399e+000,6.777205353873612e+000
35		5.843671176722590e+001,0.000000000000000e+000
	-1.340749551373961e+000,6.709780198305055e+000
36		5.907304583758000e+001,0.000000000000000e+000
	-1.313237062412782e+000,6.642911898060419e+000
37		5.971630913165062e+001,0.000000000000000e+000
	-1.286270662717584e+000,6.576599423395010e+000
38		6.036657710373694e+001,0.000000000000000e+000
	-1.259840393005561e+000,6.510841619005490e+000
39		6.102392602978156e+001,0.000000000000000e+000
	-1.233936439511354e+000,6.445637208681291e+000
40		6.168843301631767e+001,0.000000000000000e+000
	-1.208549133393035e+000,6.380984799849756e+000
41		6.236017600951352e+001,0.000000000000000e+000
	-1.183668950069773e+000,6.316882888016295e+000
42		6.303923380431550e+001,0.000000000000000e+000
	-1.159286508481159e+000,6.253329861099914e+000
43		6.372568605369072e+001,0.000000000000000e+000
	-1.135392570286967e+000,6.190324003665751e+000
44		6.441961327797021e+001,0.000000000000000e+000
	-1.111978039002793e+000,6.127863501054563e+000
45		6.512109687429395e+001,0.000000000000000e+000
	-1.089033959076005e+000,6.065946443411548e+000
46		6.583021912615864e+001,0.000000000000000e+000
	-1.066551514910316e+000,6.004570829614877e+000
47		6.654706321306951e+001,0.000000000000000e+000
	-1.044522029833956e+000,5.943734571104756e+000
48		6.727171322029722e+001,0.000000000000000e+000
	-1.022936965027043e+000,5.883435495615572e+000
49		6.800425414874100e+001,0.000000000000000e+000
	-1.001787918395394e+000,5.823671350810642e+000
50		6.874477192489918e+001,0.000000000000000e+000
	-9.810666234122891e-001,5.764439807823237e+000
51		6.949335341094832e+001,0.000000000000000e+000
	-9.607649479119118e-001,5.705738464702137e+000
52		7.025008641493204e+001,0.000000000000000e+000
	-9.408748928575506e-001,5.647564849766866e+000
53		7.101505970106092e+001,0.000000000000000e+000
	-9.213885910661475e-001,5.589916424870623e+000
54		7.178836300012436e+001,0.000000000000000e+000
	-9.022983059102216e-001,5.532790588574301e+000
55		7.257008702001603e+001,0.000000000000000e+000
	-8.835964299886427e-001,5.476184679233271e+000
56		7.336032345637378e+001,0.000000000000000e+000
	-8.652754837745533e-001,5.420095977996738e+000
57		7.415916500333550e+001,0.000000000000000e+000
	-8.473281142336191e-001,5.364521711723086e+000
58		7.496670536441208e+001,0.000000000000000e+000
	-8.297470934325020e-001,5.309459055811558e+000
59		7.578303926347871e+001,0.000000000000000e+000
	-8.125253171182294e-001,5.254905136952459e+000
60		7.660826245588598e+001,0.000000000000000e+000
	-7.956558032874455e-001,5.200857035797085e+000
61		7.744247173969187e+001,0.000000000000000e+000
	-7.791316907372448e-001,5.147311789548695e+000
62		7.828576496701611e+001,0.000000000000000e+000
	-7.629462376070251e-001,5.094266394477074e+000
63		7.913824105551814e+001,0.000000000000000e+000
	-7.470928199035143e-001,5.041717808357021e+000
64		8.000000000000010e+001,0.000000000000000e+000
	-7.315649300246605e-001,4.989662952833243e+000
65		8.087114288413613e+001,0.000000000000000e+000
	-7.163561752687429e-001,4.938098715712812e+000
66		8.175177189232943e+001,0.000000000000000e+000
	-7.014602763400717e-001,4.887021953186604e+000
67		8.264199032169837e+001,0.000000000000000e+000
	-6.868710658507098e-001,4.836429491981590e+000
68		8.354190259419320e+001,0.000000000000000e+000
	-6.725824868179871e-001,4.786318131445469e+000
69		8.445161426884467e+001,0.000000000000000e+000
	-6.585885911591731e-001,4.736684645564722e+000
70		8.537123205414598e+001,0.000000000000000e+000
	-6.448835381908111e-001,4.687525784918279e+000
71		8.630086382056967e+001,0.000000000000000e+000
	-6.314615931181606e-001,4.638838278567590e+000
72		8.724061861322070e+001,0.000000000000000e+000
	-6.183171255371462e-001,4.590618835885223e+000
73		8.819060666462737e+001,0.000000000000000e+000
	-6.054446079332365e-001,4.542864148323091e+000
74		8.915093940767150e+001,0.000000000000000e+000
	-5.928386141847568e-001,4.495570891121560e+000
75		9.012172948865945e+001,0.000000000000000e+000
	-5.804938180716590e-001,4.448735724961225e+000
76		9.110309078053544e+001,0.000000000000000e+000
	-5.684049917907714e-001,4.402355297559112e+000
77		9.209513839623872e+001,0.000000000000000e+000
	-5.565670044745730e-001,4.356426245209505e+000
78		9.309798870220631e+001,0.000000000000000e+000
	-5.449748207203129e-001,4.310945194271696e+000
79		9.411175933202262e+001,0.000000000000000e+000
	-5.336234991245874e-001,4.265908762606344e+000
80		9.513656920021781e+001,0.000000000000000e+000
	-5.225081908299671e-001,4.221313560960667e+000
81		9.617253851621638e+001,0.000000000000000e+000
	-5.116241380762858e-001,4.177156194304345e+000
82		9.721978879843763e+001,0.000000000000000e+000
	-5.009666727668218e-001,4.133433263117809e+000
83		9.827844288854973e+001,0.000000000000000e+000
	-4.905312150407326e-001,4.090141364633524e+000
84		9.934862496587886e+001,0.000000000000000e+000
	-4.803132718600409e-001,4.047277094031756e+000
85		1.004304605619754e+002,0.000000000000000e+000
	-4.703084356046929e-001,4.004837045592154e+000
86		1.015240765753388e+002,0.000000000000000e+000
	-4.605123826844420e-001,3.962817813802218e+000
87		1.026296012863024e+002,0.000000000000000e+000
	-4.509208721578943e-001,3.921215994424216e+000
88		1.037471643720809e+002,0.000000000000000e+000
	-4.415297443663349e-001,3.880028185520374e+000
89		1.048768969219813e+002,0.000000000000000e+000
	-4.323349195852870e-001,3.839250988439616e+000
90		1.060189314527795e+002,0.000000000000000e+000
	-4.233323966811895e-001,3.798881008765235e+000
91		1.071734019242644e+002,0.000000000000000e+000
	-4.145182517878538e-001,3.758914857225136e+000
92		1.083404437549516e+002,0.000000000000000e+000
	-4.058886369962238e-001,3.719349150565449e+000
93		1.095201938379674e+002,0.000000000000000e+000
	-3.974397790562989e-001,3.680180512389597e+000
94		1.107127905571067e+002,0.000000000000000e+000
	-3.891679780971344e-001,3.641405573962800e+000
95		1.119183738030651e+002,0.000000000000000e+000
	-3.810696063575279e-001,3.603020974982229e+000
96		1.131370849898478e+002,0.000000000000000e+000
	-3.731411069346677e-001,3.565023364316659e+000
97		1.143690670713578e+002,0.000000000000000e+000
	-3.653789925466526e-001,3.527409400713111e+000
98		1.156144645581639e+002,0.000000000000000e+000
	-3.577798443100164e-001,3.490175753474176e+000
99		1.168734235344519e+002,0.000000000000000e+000
	-3.503403105345342e-001,3.453319103105059e+000
100		1.181460916751601e+002,0.000000000000000e+000
	-3.430571055316705e-001,3.416836141932464e+000
101		1.194326182633014e+002,0.000000000000000e+000
	-3.359270084359878e-001,3.380723574695537e+000
102		1.207331542074740e+002,0.000000000000000e+000
	-3.289468620499747e-001,3.344978119109442e+000
103		1.220478520595633e+002,0.000000000000000e+000
	-3.221135716950130e-001,3.309596506404006e+000
104		1.233768660326355e+002,0.000000000000000e+000
	-3.154241040857642e-001,3.274575481835655e+000
105		1.247203520190272e+002,0.000000000000000e+000
	-3.088754862147880e-001,3.239911805175638e+000
106		1.260784676086311e+002,0.000000000000000e+000
	-3.024648042568288e-001,3.205602251174724e+000
107		1.274513721073816e+002,0.000000000000000e+000
	-2.961892024858344e-001,3.171643610004054e+000
108		1.288392265559406e+002,0.000000000000000e+000
	-2.900458822081191e-001,3.138032687674382e+000
109		1.302421937485881e+002,0.000000000000000e+000
	-2.840321007126931e-001,3.104766306433845e+000
110		1.316604382523174e+002,0.000000000000000e+000
	-2.781451702380764e-001,3.071841305144545e+000
111		1.330941264261392e+002,0.000000000000000e+000
	-2.723824569469571e-001,3.039254539638478e+000
112		1.345434264405946e+002,0.000000000000000e+000
	-2.667413799288170e-001,3.007002883055208e+000
113		1.360085082974821e+002,0.000000000000000e+000
	-2.612194102068770e-001,2.975083226159740e+000
114		1.374895438497985e+002,0.000000000000000e+000
	-2.558140697651652e-001,2.943492477641883e+000
115		1.389867068218968e+002,0.000000000000000e+000
	-2.505229305905914e-001,2.912227564398876e+000
116		1.405001728298642e+002,0.000000000000000e+000
	-2.453436137299150e-001,2.881285431800109e+000
117		1.420301194021220e+002,0.000000000000000e+000
	-2.402737883616055e-001,2.850663043936123e+000
118		1.435767260002489e+002,0.000000000000000e+000
	-2.353111708800952e-001,2.820357383850308e+000
119		1.451401740400322e+002,0.000000000000000e+000
	-2.304535239998131e-001,2.790365453757175e+000
120		1.467206469127477e+002,0.000000000000000e+000
	-2.256986558702465e-001,2.760684275243989e+000
121		1.483183300066712e+002,0.000000000000000e+000
	-2.210444192061232e-001,2.731310889458882e+000
122		1.499334107288243e+002,0.000000000000000e+000
	-2.164887104315767e-001,2.702242357285456e+000
123		1.515660785269576e+002,0.000000000000000e+000
	-2.120294688389777e-001,2.673475759502395e+000
124		1.532165249117721e+002,0.000000000000000e+000
	-2.076646757645904e-001,2.645008196932594e+000
125		1.548849434793839e+002,0.000000000000000e+000
	-2.033923537724149e-001,2.616836790577793e+000
126		1.565715299340324e+002,0.000000000000000e+000
	-1.992105658570154e-001,2.588958681741985e+000
127		1.582764821110364e+002,0.000000000000000e+000
	-1.951174146562380e-001,2.561371032143512e+000
128		1.600000000000003e+002,0.000000000000000e+000
	-1.911110416815518e-001,2.534071024015447e+000
129		1.617422857682724e+002,0.000000000000000e+000
	-1.871896265571422e-001,2.507055860195607e+000
130		1.635035437846590e+002,0.000000000000000e+000
	-1.833513862766267e-001,2.480322764206221e+000
131		1.652839806433969e+002,0.000000000000000e+000
	-1.795945744667051e-001,2.453868980323080e+000
132		1.670838051883866e+002,0.000000000000000e+000
	-1.759174806737747e-001,2.427691773636269e+000
133		1.689032285376895e+002,0.000000000000000e+000
	-1.723184296513409e-001,2.401788430100339e+000
134		1.707424641082921e+002,0.000000000000000e+000
	-1.687957806678924e-001,2.376156256576167e+000
135		1.726017276411395e+002,0.000000000000000e+000
	-1.653479268260298e-001,2.350792580864379e+000
136		1.744812372264416e+002,0.000000000000000e+000
	-1.619732943914869e-001,2.325694751730822e+000
137		1.763812133292549e+002,0.000000000000000e+000
	-1.586703421349966e-001,2.300860138922957e+000
138		1.783018788153432e+002,0.000000000000000e+000
	-1.554375606882559e-001,2.276286133180179e+000
139		1.802434589773191e+002,0.000000000000000e+000
	-1.522734719093251e-001,2.251970146235834e+000
140		1.822061815610711e+002,0.000000000000000e+000
	-1.491766282582603e-001,2.227909610812390e+000
141		1.841902767924776e+002,0.000000000000000e+000
	-1.461456121893434e-001,2.204101980610375e+000
142		1.861959774044128e+002,0.000000000000000e+000
	-1.431790355479734e-001,2.180544730289938e+000
143		1.882235186640454e+002,0.000000000000000e+000
	-1.402755389851791e-001,2.157235355447682e+000
144		1.902731384004358e+002,0.000000000000000e+000
	-1.374337913780437e-001,2.134171372585996e+000
145		1.923450770324329e+002,0.000000000000000e+000
	-1.346524892616117e-001,2.111350319077531e+000
146		1.944395775968754e+002,0.000000000000000e+000
	-1.319303562737559e-001,2.088769753124097e+000
147		1.965568857770996e+002,0.000000000000000e+000
	-1.292661426108452e-001,2.066427253710970e+000
148		1.986972499317579e+002,0.000000000000000e+000
	-1.266586244871633e-001,2.044320420554243e+000
149		2.008609211239510e+002,0.000000000000000e+000
	-1.241066036134271e-001,2.022446874046779e+000
150		2.030481531506778e+002,0.000000000000000e+000
	-1.216089066800805e-001,2.000804255195590e+000
151		2.052592025726050e+002,0.000000000000000e+000
	-1.191643848502508e-001,1.979390225558404e+000
152		2.074943287441620e+002,0.000000000000000e+000
	-1.167719132631646e-001,1.958202467173521e+000
153		2.097537938439628e+002,0.000000000000000e+000
	-1.144303905488187e-001,1.937238682487674e+000
154		2.120378629055591e+002,0.000000000000000e+000
	-1.121387383491310e-001,1.916496594278698e+000
155		2.143468038485290e+002,0.000000000000000e+000
	-1.098959008505744e-001,1.895973945575008e+000
156		2.166808875099033e+002,0.000000000000000e+000
	-1.077008443230625e-001,1.875668499571873e+000
157		2.190403876759350e+002,0.000000000000000e+000
	-1.055525566711140e-001,1.855578039544810e+000
158		2.214255811142136e+002,0.000000000000000e+000
	-1.034500469909290e-001,1.835700368758694e+000
159		2.238367476061303e+002,0.000000000000000e+000
	-1.013923451375831e-001,1.816033310374678e+000
160		2.262741699796957e+002,0.000000000000000e+000
	-9.937850129949766e-002,1.796574707354807e+000
161		2.287381341427157e+002,0.000000000000000e+000
	-9.740758558234575e-002,1.777322422362715e+000
162		2.312289291163280e+002,0.000000000000000e+000
	-9.547868760159872e-002,1.758274337663465e+000
163		2.337468470689040e+002,0.000000000000000e+000
	-9.359091607939263e-002,1.739428355019186e+000
164		2.362921833503204e+002,0.000000000000000e+000
	-9.174339845401391e-002,1.720782395583683e+000
165		2.388652365266029e+002,0.000000000000000e+000
	-8.993528049450106e-002,1.702334399795063e+000
166		2.414663084149482e+002,0.000000000000000e+000
	-8.816572592286320e-002,1.684082327265344e+000
167		2.440957041191267e+002,0.000000000000000e+000
	-8.643391604425688e-002,1.666024156668868e+000
168		2.467537320652711e+002,0.000000000000000e+000
	-8.473904938546184e-002,1.648157885629985e+000
169		2.494407040380545e+002,0.000000000000000e+000
	-8.308034133665387e-002,1.630481530605891e+000
170		2.521569352172624e+002,0.000000000000000e+000
	-8.145702380681996e-002,1.612993126772324e+000
171		2.549027442147633e+002,0.000000000000000e+000
	-7.986834487894612e-002,1.595690727903445e+000
172		2.576784531118813e+002,0.000000000000000e+000
	-7.831356847680127e-002,1.578572406253954e+000
173		2.604843874971763e+002,0.000000000000000e+000
	-7.679197403797389e-002,1.561636252438177e+000
174		2.633208765046350e+002,0.000000000000000e+000
	-7.530285618975086e-002,1.544880375307685e+000
175		2.661882528522785e+002,0.000000000000000e+000
	-7.384552443670600e-002,1.528302901828567e+000
176		2.690868528811893e+002,0.000000000000000e+000
	-7.241930284965292e-002,1.511901976958427e+000
177		2.720170165949645e+002,0.000000000000000e+000
	-7.102352976585280e-002,1.495675763520751e+000
178		2.749790876995972e+002,0.000000000000000e+000
	-6.965755749001801e-002,1.479622442079801e+000
179		2.779734136437937e+002,0.000000000000000e+000
	-6.832075200463805e-002,1.463740210813739e+000
180		2.810003456597286e+002,0.000000000000000e+000
	-6.701249268667198e-002,1.448027285388776e+000
181		2.840602388042441e+002,0.000000000000000e+000
	-6.573217202640080e-002,1.432481898830474e+000
182		2.871534520004979e+002,0.000000000000000e+000
	-6.447919535571600e-002,1.417102301395630e+000
183		2.902803480800646e+002,0.000000000000000e+000
	-6.325298058038698e-002,1.401886760445620e+000
184		2.934412938254956e+002,0.000000000000000e+000
	-6.205295791687604e-002,1.386833560314244e+000
185		2.966366600133425e+002,0.000000000000000e+000
	-6.087856963654303e-002,1.371941002181131e+000
186		2.998668214576488e+002,0.000000000000000e+000
	-5.972926981223736e-002,1.357207403941061e+000
187		3.031321570539153e+002,0.000000000000000e+000
	-5.860452407307548e-002,1.342631100073390e+000
188		3.064330498235444e+002,0.000000000000000e+000
	-5.750380936262900e-002,1.328210441513647e+000
189		3.097698869587679e+002,0.000000000000000e+000
	-5.642661370154656e-002,1.313943795521652e+000
190		3.131430598680649e+002,0.000000000000000e+000
	-5.537243595676955e-002,1.299829545552996e+000
191		3.165529642220730e+002,0.000000000000000e+000
	-5.434078561268052e-002,1.285866091126707e+000
192		3.200000000000009e+002,0.000000000000000e+000
	-5.333118255100544e-002,1.272051847697242e+000
193		3.234845715365450e+002,0.000000000000000e+000
	-5.234315683060231e-002,1.258385246522437e+000
194		3.270070875693182e+002,0.000000000000000e+000
	-5.137624847566258e-002,1.244864734534701e+000
195		3.305679612867940e+002,0.000000000000000e+000
	-5.043000726516311e-002,1.231488774209481e+000
196		3.341676103767733e+002,0.000000000000000e+000
	-4.950399252891202e-002,1.218255843437305e+000
197		3.378064570753792e+002,0.000000000000000e+000
	-4.859777294825562e-002,1.205164435393272e+000
198		3.414849282165845e+002,0.000000000000000e+000
	-4.771092635701280e-002,1.192213058407447e+000
199		3.452034552822793e+002,0.000000000000000e+000
	-4.684303955036739e-002,1.179400235835999e+000
200		3.489624744528834e+002,0.000000000000000e+000
	-4.599370809705761e-002,1.166724505932393e+000
201		3.527624266585100e+002,0.000000000000000e+000
	-4.516253615327059e-002,1.154184421719833e+000
202		3.566037576306866e+002,0.000000000000000e+000
	-4.434913628381310e-002,1.141778550861659e+000
203		3.604869179546384e+002,0.000000000000000e+000
	-4.355312928362309e-002,1.129505475535098e+000
204		3.644123631221423e+002,0.000000000000000e+000
	-4.277414400428370e-002,1.117363792302854e+000
205		3.683805535849555e+002,0.000000000000000e+000
	-4.201181718599401e-002,1.105352111987941e+000
206		3.723919548088258e+002,0.000000000000000e+000
	-4.126579328851676e-002,1.093469059544987e+000
207		3.764470373280910e+002,0.000000000000000e+000
	-4.053572433247155e-002,1.081713273937282e+000
208		3.805462768008718e+002,0.000000000000000e+000
	-3.982126973494360e-002,1.070083408008884e+000
209		3.846901540648661e+002,0.000000000000000e+000
	-3.912209615748452e-002,1.058578128361774e+000
210		3.888791551937512e+002,0.000000000000000e+000
	-3.843787735104343e-002,1.047196115230520e+000
211		3.931137715541996e+002,0.000000000000000e+000
	-3.776829400715087e-002,1.035936062359326e+000
212		3.973944998635161e+002,0.000000000000000e+000
	-3.711303361069440e-002,1.024796676878509e+000
213		4.017218422479023e+002,0.000000000000000e+000
	-3.647179029690051e-002,1.013776679182570e+000
214		4.060963063013558e+002,0.000000000000000e+000
	-3.584426471127244e-002,1.002874802808265e+000
215		4.105184051452102e+002,0.000000000000000e+000
	-3.523016386986910e-002,9.920897943130740e-001
216		4.149886574883243e+002,0.000000000000000e+000
	-3.462920102754197e-002,9.814204131557744e-001
217		4.195075876879258e+002,0.000000000000000e+000
	-3.404109554355728e-002,9.708654315745662e-001
218		4.240757258111185e+002,0.000000000000000e+000
	-3.346557275426676e-002,9.604236344713399e-001
219		4.286936076970582e+002,0.000000000000000e+000
	-3.290236384452783e-002,9.500938192895774e-001
220		4.333617750198069e+002,0.000000000000000e+000
	-3.235120572583128e-002,9.398747958988452e-001
221		4.380807753518703e+002,0.000000000000000e+000
	-3.181184091477007e-002,9.297653864776976e-001
222		4.428511622284275e+002,0.000000000000000e+000
	-3.128401741219022e-002,9.197644253960675e-001
223		4.476734952122609e+002,0.000000000000000e+000
	-3.076748859029976e-002,9.098707591012385e-001
224		4.525483399593917e+002,0.000000000000000e+000
	-3.026201307625343e-002,9.000832460027368e-001
225		4.574762682854317e+002,0.000000000000000e+000
	-2.976735464221747e-002,8.904007563571099e-001
226		4.624578582326563e+002,0.000000000000000e+000
	-2.928328209520714e-002,8.808221721560585e-001
227		4.674936941378084e+002,0.000000000000000e+000
	-2.880956917135791e-002,8.713463870133182e-001
228		4.725843667006412e+002,0.000000000000000e+000
	-2.834599443099251e-002,8.619723060528486e-001
229		4.777304730532061e+002,0.000000000000000e+000
	-2.789234115539330e-002,8.526988457981588e-001
230		4.829326168298967e+002,0.000000000000000e+000
	-2.744839724869053e-002,8.435249340615201e-001
231		4.881914082382537e+002,0.000000000000000e+000
	-2.701395513679472e-002,8.344495098357925e-001
232		4.935074641305425e+002,0.000000000000000e+000
	-2.658881167440086e-002,8.254715231840351e-001
233		4.988814080761093e+002,0.000000000000000e+000
	-2.617276804892299e-002,8.165899351330950e-001
234		5.043138704345252e+002,0.000000000000000e+000
	-2.576562969011320e-002,8.078037175666850e-001
235		5.098054884295270e+002,0.000000000000000e+000
	-2.536720617717947e-002,7.991118531172106e-001
236		5.153569062237630e+002,0.000000000000000e+000
	-2.497731115454371e-002,7.905133350634515e-001
237		5.209687749943529e+002,0.000000000000000e+000
	-2.459576224191551e-002,7.820071672230711e-001
238		5.266417530092704e+002,0.000000000000000e+000
	-2.422238095186913e-002,7.735923638508098e-001
239		5.323765057045573e+002,0.000000000000000e+000
	-2.385699260548790e-002,7.652679495333814e-001
240		5.381737057623790e+002,0.000000000000000e+000
	-2.349942625471613e-002,7.570329590908500e-001
241		5.440340331899292e+002,0.000000000000000e+000
	-2.314951459845815e-002,7.488864374711284e-001
242		5.499581753991947e+002,0.000000000000000e+000
	-2.280709390731772e-002,7.408274396513548e-001
243		5.559468272875878e+002,0.000000000000000e+000
	-2.247200394913307e-002,7.328550305397243e-001
244		5.620006913194576e+002,0.000000000000000e+000
	-2.214408791155620e-002,7.249682848732277e-001
245		5.681204776084886e+002,0.000000000000000e+000
	-2.182319233088492e-002,7.171662871215290e-001
246		5.743069040009962e+002,0.000000000000000e+000
	-2.150916702146333e-002,7.094481313906726e-001
247		5.805606961601295e+002,0.000000000000000e+000
	-2.120186500440013e-002,7.018129213234943e-001
248		5.868825876509916e+002,0.000000000000000e+000
	-2.090114243992503e-002,6.942597700066244e-001
249		5.932733200266854e+002,0.000000000000000e+000
	-2.060685856076816e-002,6.867877998746508e-001
250		5.997336429152980e+002,0.000000000000000e+000
	-2.031887560667656e-002,6.793961426155306e-001
251		6.062643141078311e+002,0.000000000000000e+000
	-2.003705876006734e-002,6.720839390785045e-001
252		6.128660996470892e+002,0.000000000000000e+000
	-1.976127608372735e-002,6.648503391799636e-001
253		6.195397739175363e+002,0.000000000000000e+000
	-1.949139845896752e-002,6.576945018139782e-001
254		6.262861197361302e+002,0.000000000000000e+000
	-1.922729952661939e-002,6.506155947589036e-001
255		6.331059284441465e+002,0.000000000000000e+000
	-1.896885562609896e-002,6.436127945895009e-001
256		6.400000000000022e+002,0.000000000000000e+000
	-1.871594574129176e-002,6.366852865864416e-001
257		6.469691430730904e+002,0.000000000000000e+000
	-1.846845143995779e-002,6.298322646471206e-001
258		6.540141751386368e+002,0.000000000000000e+000
	-1.822625682302714e-002,6.230529312005046e-001
259		6.611359225735884e+002,0.000000000000000e+000
	-1.798924846661976e-002,6.163464971171493e-001
260		6.683352207535470e+002,0.000000000000000e+000
	-1.775731537247793e-002,6.097121816250706e-001
261		6.756129141507588e+002,0.000000000000000e+000
	-1.753034891396510e-002,6.031492122234567e-001
262		6.829698564331694e+002,0.000000000000000e+000
	-1.730824278729415e-002,5.966568245988242e-001
263		6.904069105645590e+002,0.000000000000000e+000
	-1.709089296025468e-002,5.902342625398092e-001
264		6.979249489057672e+002,0.000000000000000e+000
	-1.687819762480558e-002,5.838807778555406e-001
265		7.055248533170205e+002,0.000000000000000e+000
	-1.667005714989500e-002,5.775956302924783e-001
266		7.132075152613736e+002,0.000000000000000e+000
	-1.646637403428031e-002,5.713780874534677e-001
267		7.209738359092772e+002,0.000000000000000e+000
	-1.626705286128072e-002,5.652274247162836e-001
268		7.288247262442851e+002,0.000000000000000e+000
	-1.607200025409838e-002,5.591429251536511e-001
269		7.367611071699114e+002,0.000000000000000e+000
	-1.588112483295845e-002,5.531238794545175e-001
270		7.447839096176521e+002,0.000000000000000e+000
	-1.569433717236279e-002,5.471695858447561e-001
271		7.528940746561825e+002,0.000000000000000e+000
	-1.551154975857116e-002,5.412793500098587e-001
272		7.610925536017440e+002,0.000000000000000e+000
	-1.533267694958340e-002,5.354524850181406e-001
273		7.693803081297326e+002,0.000000000000000e+000
	-1.515763493478062e-002,5.296883112429782e-001
274		7.777583103875028e+002,0.000000000000000e+000
	-1.498634169587376e-002,5.239861562884016e-001
275		7.862275431083996e+002,0.000000000000000e+000
	-1.481871696910275e-002,5.183453549138335e-001
276		7.947889997270326e+002,0.000000000000000e+000
	-1.465468220749244e-002,5.127652489603065e-001
277		8.034436844958051e+002,0.000000000000000e+000
	-1.449416054327912e-002,5.072451872756574e-001
278		8.121926126027121e+002,0.000000000000000e+000
	-1.433707675380447e-002,5.017845256433589e-001
279		8.210368102904209e+002,0.000000000000000e+000
	-1.418335722473785e-002,4.963826267087939e-001
280		8.299773149766490e+002,0.000000000000000e+000
	-1.403292991705030e-002,4.910388599095086e-001
281		8.390151753758521e+002,0.000000000000000e+000
	-1.388572433245372e-002,4.857526014029645e-001
282		8.481514516222374e+002,0.000000000000000e+000
	-1.374167148054539e-002,4.805232339977010e-001
283		8.573872153941169e+002,0.000000000000000e+000
	-1.360070384725987e-002,4.753501470829065e-001
284		8.667235500396143e+002,0.000000000000000e+000
	-1.346275536218400e-002,4.702327365605470e-001
285		8.761615507037410e+002,0.000000000000000e+000
	-1.332776136956682e-002,4.651704047773251e-001
286		8.857023244568555e+002,0.000000000000000e+000
	-1.319565859597560e-002,4.601625604569222e-001
287		8.953469904245222e+002,0.000000000000000e+000
	-1.306638512176050e-002,4.552086186333213e-001
288		9.050966799187839e+002,0.000000000000000e+000
	-1.293988035251914e-002,4.503080005848688e-001
289		9.149525365708639e+002,0.000000000000000e+000
	-1.281608499004960e-002,4.454601337694726e-001
290		9.249157164653130e+002,0.000000000000000e+000
	-1.269494100517932e-002,4.406644517587779e-001
291		9.349873882756174e+002,0.000000000000000e+000
	-1.257639161008228e-002,4.359203941750707e-001
292		9.451687334012829e+002,0.000000000000000e+000
	-1.246038123230164e-002,4.312274066271584e-001
293		9.554609461064129e+002,0.000000000000000e+000
	-1.234685548791958e-002,4.265849406475581e-001
294		9.658652336597939e+002,0.000000000000000e+000
	-1.223576115768310e-002,4.219924536309350e-001
295		9.763828164765080e+002,0.000000000000000e+000
	-1.212704616011706e-002,4.174494087717449e-001
296		9.870149282610856e+002,0.000000000000000e+000
	-1.202065952901421e-002,4.129552750038670e-001
297		9.977628161522192e+002,0.000000000000000e+000
	-1.191655138859460e-002,4.085095269397812e-001
298		1.008627740869051e+003,0.000000000000000e+000
	-1.181467293025662e-002,4.041116448110529e-001
299		1.019610976859055e+003,0.000000000000000e+000
	-1.171497639012387e-002,3.997611144087614e-001
300		1.030713812447527e+003,0.000000000000000e+000
	-1.161741502613722e-002,3.954574270261446e-001