Title: *
Date: Tue Sep 12 18:21:57 2017
Plotname: AC Analysis
Flags: complex forward log
No. Variables: 2
No. Points:         1298
Offset:   0.0000000000000000e+000
Command: Linear Technology Corporation LTspice IV
Variables:
	0	frequency	frequency
	1	I(V1)	device_current
Values:
0		4.000000000000000e+001,0.000000000000000e+000
	-1.122698309592067e+001,1.634459670148223e+001
1		4.043557144206802e+001,0.000000000000000e+000
	-1.106260054132736e+001,1.627986383387239e+001
2		4.087588594616467e+001,0.000000000000000e+000
	-1.089953397450302e+001,1.621374732976622e+001
3		4.132099516084914e+001,0.000000000000000e+000
	-1.073780544657154e+001,1.614627939233338e+001
4		4.177095129709655e+001,0.000000000000000e+000
	-1.057743602575363e+001,1.607749254846852e+001
5		4.222580713442228e+001,0.000000000000000e+000
	-1.041844579546921e+001,1.600741961449890e+001
6		4.268561602707294e+001,0.000000000000000e+000
	-1.026085385377951e+001,1.593609366219295e+001
7		4.315043191028479e+001,0.000000000000000e+000
	-1.010467831413246e+001,1.586354798512644e+001
8		4.362030930661030e+001,0.000000000000000e+000
	-9.949936307380767e+000,1.578981606545850e+001
9		4.409530333231363e+001,0.000000000000000e+000
	-9.796643985033825e+000,1.571493154116870e+001
10		4.457546970383570e+001,0.000000000000000e+000
	-9.644816523712734e+000,1.563892817380346e+001
11		4.506086474432968e+001,0.000000000000000e+000
	-9.494468130763835e+000,1.556183981677654e+001
12		4.555154539026767e+001,0.000000000000000e+000
	-9.345612050990326e+000,1.548370038426728e+001
13		4.604756919811931e+001,0.000000000000000e+000
	-9.198260574464712e+000,1.540454382075627e+001
14		4.654899435110310e+001,0.000000000000000e+000
	-9.052425045375003e+000,1.532440407123566e+001
15		4.705587966601126e+001,0.000000000000000e+000
	-8.908115871858286e+000,1.524331505212901e+001
16		4.756828460010885e+001,0.000000000000000e+000
	-8.765342536781304e+000,1.516131062295238e+001
17		4.808626925810814e+001,0.000000000000000e+000
	-8.624113609421556e+000,1.507842455874533e+001
18		4.860989439921877e+001,0.000000000000000e+000
	-8.484436757991261e+000,1.499469052329875e+001
19		4.913922144427481e+001,0.000000000000000e+000
	-8.346318762980786e+000,1.491014204320235e+001
20		4.967431248293937e+001,0.000000000000000e+000
	-8.209765531241374e+000,1.482481248273296e+001
21		5.021523028098766e+001,0.000000000000000e+000
	-8.074782110793535e+000,1.473873501960195e+001
22		5.076203828766934e+001,0.000000000000000e+000
	-7.941372706285733e+000,1.465194262157675e+001
23		5.131480064315115e+001,0.000000000000000e+000
	-7.809540695074929e+000,1.456446802399015e+001
24		5.187358218604040e+001,0.000000000000000e+000
	-7.679288643869654e+000,1.447634370814723e+001
25		5.243844846099059e+001,0.000000000000000e+000
	-7.550618325901382e+000,1.438760188063837e+001
26		5.300946572638967e+001,0.000000000000000e+000
	-7.423530738559634e+000,1.429827445356392e+001
27		5.358670096213214e+001,0.000000000000000e+000
	-7.298026121466364e+000,1.420839302567394e+001
28		5.417022187747573e+001,0.000000000000000e+000
	-7.174103974929835e+000,1.411798886442453e+001
29		5.476009691898365e+001,0.000000000000000e+000
	-7.051763078742511e+000,1.402709288894945e+001
30		5.535639527855330e+001,0.000000000000000e+000
	-6.931001511273394e+000,1.393573565394478e+001
31		5.595918690153247e+001,0.000000000000000e+000
	-6.811816668816960e+000,1.384394733446133e+001
32		5.656854249492383e+001,0.000000000000000e+000
	-6.694205285162411e+000,1.375175771159890e+001
33		5.718453353567882e+001,0.000000000000000e+000
	-6.578163451331420e+000,1.365919615909351e+001
34		5.780723227908189e+001,0.000000000000000e+000
	-6.463686635456497e+000,1.356629163078836e+001
35		5.843671176722590e+001,0.000000000000000e+000
	-6.350769702760886e+000,1.347307264897664e+001
36		5.907304583758000e+001,0.000000000000000e+000
	-6.239406935598936e+000,1.337956729360364e+001
37		5.971630913165062e+001,0.000000000000000e+000
	-6.129592053528086e+000,1.328580319231465e+001
38		6.036657710373694e+001,0.000000000000000e+000
	-6.021318233380384e+000,1.319180751133216e+001
39		6.102392602978156e+001,0.000000000000000e+000
	-5.914578129292977e+000,1.309760694714720e+001
40		6.168843301631767e+001,0.000000000000000e+000
	-5.809363892676856e+000,1.300322771900673e+001
41		6.236017600951352e+001,0.000000000000000e+000
	-5.705667192092847e+000,1.290869556217909e+001
42		6.303923380431550e+001,0.000000000000000e+000
	-5.603479233001735e+000,1.281403572197812e+001
43		6.372568605369072e+001,0.000000000000000e+000
	-5.502790777370592e+000,1.271927294852652e+001
44		6.441961327797021e+001,0.000000000000000e+000
	-5.403592163105486e+000,1.262443149223726e+001
45		6.512109687429395e+001,0.000000000000000e+000
	-5.305873323289347e+000,1.252953509999270e+001
46		6.583021912615864e+001,0.000000000000000e+000
	-5.209623805203592e+000,1.243460701199972e+001
47		6.654706321306951e+001,0.000000000000000e+000
	-5.114832789111460e+000,1.233966995929829e+001
48		6.727171322029722e+001,0.000000000000000e+000
	-5.021489106789318e+000,1.224474616190236e+001
49		6.800425414874100e+001,0.000000000000000e+000
	-4.929581259776910e+000,1.214985732754901e+001
50		6.874477192489918e+001,0.000000000000000e+000
	-4.839097437350461e+000,1.205502465103564e+001
51		6.949335341094832e+001,0.000000000000000e+000
	-4.750025534178008e+000,1.196026881411902e+001
52		7.025008641493204e+001,0.000000000000000e+000
	-4.662353167669380e+000,1.186560998595681e+001
53		7.101505970106092e+001,0.000000000000000e+000
	-4.576067694987046e+000,1.177106782406644e+001
54		7.178836300012436e+001,0.000000000000000e+000
	-4.491156229721810e+000,1.167666147577930e+001
55		7.257008702001603e+001,0.000000000000000e+000
	-4.407605658213925e+000,1.158240958016823e+001
56		7.336032345637378e+001,0.000000000000000e+000
	-4.325402655519611e+000,1.148833027042457e+001
57		7.415916500333550e+001,0.000000000000000e+000
	-4.244533701001956e+000,1.139444117666363e+001
58		7.496670536441208e+001,0.000000000000000e+000
	-4.164985093558812e+000,1.130075942913625e+001
59		7.578303926347871e+001,0.000000000000000e+000
	-4.086742966462793e+000,1.120730166182472e+001
60		7.660826245588598e+001,0.000000000000000e+000
	-4.009793301821901e+000,1.111408401640165e+001
61		7.744247173969187e+001,0.000000000000000e+000
	-3.934121944649633e+000,1.102112214653073e+001
62		7.828576496701611e+001,0.000000000000000e+000
	-3.859714616548786e+000,1.092843122248955e+001
63		7.913824105551814e+001,0.000000000000000e+000
	-3.786556928998039e+000,1.083602593609290e+001
64		8.000000000000010e+001,0.000000000000000e+000
	-3.714634396250858e+000,1.074392050589842e+001
65		8.087114288413613e+001,0.000000000000000e+000
	-3.643932447836164e+000,1.065212868267430e+001
66		8.175177189232943e+001,0.000000000000000e+000
	-3.574436440668706e+000,1.056066375511026e+001
67		8.264199032169837e+001,0.000000000000000e+000
	-3.506131670763921e+000,1.046953855575430e+001
68		8.354190259419320e+001,0.000000000000000e+000
	-3.439003384569560e+000,1.037876546715704e+001
69		8.445161426884467e+001,0.000000000000000e+000
	-3.373036789897697e+000,1.028835642820577e+001
70		8.537123205414598e+001,0.000000000000000e+000
	-3.308217066486122e+000,1.019832294063309e+001
71		8.630086382056967e+001,0.000000000000000e+000
	-3.244529376162859e+000,1.010867607568227e+001
72		8.724061861322070e+001,0.000000000000000e+000
	-3.181958872643577e+000,1.001942648091483e+001
73		8.819060666462737e+001,0.000000000000000e+000
	-3.120490710952254e+000,9.930584387145487e+000
74		8.915093940767150e+001,0.000000000000000e+000
	-3.060110056470876e+000,9.842159615488399e+000
75		9.012172948865945e+001,0.000000000000000e+000
	-3.000802093628067e+000,9.754161584502811e+000
76		9.110309078053544e+001,0.000000000000000e+000
	-2.942552034228697e+000,9.666599317423433e+000
77		9.209513839623872e+001,0.000000000000000e+000
	-2.885345125431741e+000,9.579481449462861e+000
78		9.309798870220631e+001,0.000000000000000e+000
	-2.829166657379915e+000,9.492816235173848e+000
79		9.411175933202262e+001,0.000000000000000e+000
	-2.774001970490303e+000,9.406611555860138e+000
80		9.513656920021781e+001,0.000000000000000e+000
	-2.719836462414264e+000,9.320874927023823e+000
81		9.617253851621638e+001,0.000000000000000e+000
	-2.666655594665485e+000,9.235613505838757e+000
82		9.721978879843763e+001,0.000000000000000e+000
	-2.614444898934153e+000,9.150834098640317e+000
83		9.827844288854973e+001,0.000000000000000e+000
	-2.563189983082225e+000,9.066543168421191e+000
84		9.934862496587886e+001,0.000000000000000e+000
	-2.512876536839713e+000,8.982746842324275e+000
85		1.004304605619754e+002,0.000000000000000e+000
	-2.463490337197641e+000,8.899450919124007e+000
86		1.015240765753388e+002,0.000000000000000e+000
	-2.415017253515430e+000,8.816660876687806e+000
87		1.026296012863024e+002,0.000000000000000e+000
	-2.367443252339285e+000,8.734381879410080e+000
88		1.037471643720809e+002,0.000000000000000e+000
	-2.320754401948420e+000,8.652618785610528e+000
89		1.048768969219813e+002,0.000000000000000e+000
	-2.274936876637071e+000,8.571376154891766e+000
90		1.060189314527795e+002,0.000000000000000e+000
	-2.229976960726276e+000,8.490658255447755e+000
91		1.071734019242644e+002,0.000000000000000e+000
	-2.185861052330779e+000,8.410469071318175e+000
92		1.083404437549516e+002,0.000000000000000e+000
	-2.142575666877747e+000,8.330812309582839e+000
93		1.095201938379674e+002,0.000000000000000e+000
	-2.100107440386978e+000,8.251691407490824e+000
94		1.107127905571067e+002,0.000000000000000e+000
	-2.058443132523053e+000,8.173109539519885e+000
95		1.119183738030651e+002,0.000000000000000e+000
	-2.017569629421246e+000,8.095069624360292e+000
96		1.131370849898478e+002,0.000000000000000e+000
	-1.977473946298801e+000,8.017574331821123e+000
97		1.143690670713578e+002,0.000000000000000e+000
	-1.938143229860998e+000,7.940626089652881e+000
98		1.156144645581639e+002,0.000000000000000e+000
	-1.899564760499288e+000,7.864227090284629e+000
99		1.168734235344519e+002,0.000000000000000e+000
	-1.861725954302187e+000,7.788379297471522e+000
100		1.181460916751601e+002,0.000000000000000e+000
	-1.824614364876084e+000,7.713084452850325e+000
101		1.194326182633014e+002,0.000000000000000e+000
	-1.788217684980964e+000,7.638344082400010e+000
102		1.207331542074740e+002,0.000000000000000e+000
	-1.752523748004819e+000,7.564159502804642e+000
103		1.220478520595633e+002,0.000000000000000e+000
	-1.717520529255694e+000,7.490531827718428e+000
104		1.233768660326355e+002,0.000000000000000e+000
	-1.683196147106742e+000,7.417461973928056e+000
105		1.247203520190272e+002,0.000000000000000e+000
	-1.649538863978137e+000,7.344950667413144e+000
106		1.260784676086311e+002,0.000000000000000e+000
	-1.616537087178017e+000,7.272998449303145e+000
107		1.274513721073816e+002,0.000000000000000e+000
	-1.584179369595290e+000,7.201605681727671e+000
108		1.288392265559406e+002,0.000000000000000e+000
	-1.552454410261476e+000,7.130772553561911e+000
109		1.302421937485881e+002,0.000000000000000e+000
	-1.521351054781349e+000,7.060499086064624e+000
110		1.316604382523174e+002,0.000000000000000e+000
	-1.490858295641829e+000,6.990785138409024e+000
111		1.330941264261392e+002,0.000000000000000e+000
	-1.460965272393992e+000,6.921630413104367e+000
112		1.345434264405946e+002,0.000000000000000e+000
	-1.431661271734924e+000,6.853034461311580e+000
113		1.360085082974821e+002,0.000000000000000e+000
	-1.402935727471117e+000,6.784996688049290e+000
114		1.374895438497985e+002,0.000000000000000e+000
	-1.374778220383405e+000,6.717516357291260e+000
115		1.389867068218968e+002,0.000000000000000e+000
	-1.347178477994021e+000,6.650592596957409e+000
116		1.405001728298642e+002,0.000000000000000e+000
	-1.320126374241795e+000,6.584224403795588e+000
117		1.420301194021220e+002,0.000000000000000e+000
	-1.293611929067652e+000,6.518410648157442e+000
118		1.435767260002489e+002,0.000000000000000e+000
	-1.267625307914955e+000,6.453150078666170e+000
119		1.451401740400322e+002,0.000000000000000e+000
	-1.242156821155731e+000,6.388441326779770e+000
120		1.467206469127477e+002,0.000000000000000e+000
	-1.217196923437996e+000,6.324282911248162e+000
121		1.483183300066712e+002,0.000000000000000e+000
	-1.192736212963837e+000,6.260673242465373e+000
122		1.499334107288243e+002,0.000000000000000e+000
	-1.168765430699523e+000,6.197610626720120e+000
123		1.515660785269576e+002,0.000000000000000e+000
	-1.145275459524896e+000,6.135093270341031e+000
124		1.532165249117721e+002,0.000000000000000e+000
	-1.122257323323652e+000,6.073119283743296e+000
125		1.548849434793839e+002,0.000000000000000e+000
	-1.099702186015406e+000,6.011686685373292e+000
126		1.565715299340324e+002,0.000000000000000e+000
	-1.077601350539794e+000,5.950793405554066e+000
127		1.582764821110364e+002,0.000000000000000e+000
	-1.055946257786218e+000,5.890437290233763e+000
128		1.600000000000003e+002,0.000000000000000e+000
	-1.034728485487676e+000,5.830616104636846e+000
129		1.617422857682724e+002,0.000000000000000e+000
	-1.013939747062068e+000,5.771327536820451e+000
130		1.635035437846590e+002,0.000000000000000e+000
	-9.935718904220039e-001,5.712569201136546e+000
131		1.652839806433969e+002,0.000000000000000e+000
	-9.736168967424419e-001,5.654338641601498e+000
132		1.670838051883866e+002,0.000000000000000e+000
	-9.540668792018323e-001,5.596633335175199e+000
133		1.689032285376895e+002,0.000000000000000e+000
	-9.349140816842692e-001,5.539450694950261e+000
134		1.707424641082921e+002,0.000000000000000e+000
	-9.161508774600407e-001,5.482788073252607e+000
135		1.726017276411395e+002,0.000000000000000e+000
	-8.977697678365075e-001,5.426642764656293e+000
136		1.744812372264416e+002,0.000000000000000e+000
	-8.797633807884040e-001,5.371012008913283e+000
137		1.763812133292549e+002,0.000000000000000e+000
	-8.621244695631276e-001,5.315892993798911e+000
138		1.783018788153432e+002,0.000000000000000e+000
	-8.448459112699993e-001,5.261282857875813e+000
139		1.802434589773191e+002,0.000000000000000e+000
	-8.279207054541757e-001,5.207178693178122e+000
140		1.822061815610711e+002,0.000000000000000e+000
	-8.113419726474831e-001,5.153577547815331e+000
141		1.841902767924776e+002,0.000000000000000e+000
	-7.951029529183415e-001,5.100476428500372e+000
142		1.861959774044128e+002,0.000000000000000e+000
	-7.791970043981564e-001,5.047872303000503e+000
143		1.882235186640454e+002,0.000000000000000e+000
	-7.636176018074821e-001,4.995762102515641e+000
144		1.902731384004358e+002,0.000000000000000e+000
	-7.483583349696801e-001,4.944142723982509e+000
145		1.923450770324329e+002,0.000000000000000e+000
	-7.334129073163922e-001,4.893011032308777e+000
146		1.944395775968754e+002,0.000000000000000e+000
	-7.187751343926720e-001,4.842363862536445e+000
147		1.965568857770996e+002,0.000000000000000e+000
	-7.044389423592747e-001,4.792198021939555e+000
148		1.986972499317579e+002,0.000000000000000e+000
	-6.903983664838052e-001,4.742510292051833e+000
149		2.008609211239510e+002,0.000000000000000e+000
	-6.766475496424391e-001,4.693297430633749e+000
150		2.030481531506778e+002,0.000000000000000e+000
	-6.631807408140276e-001,4.644556173571147e+000
151		2.052592025726050e+002,0.000000000000000e+000
	-6.499922935803397e-001,4.596283236716431e+000
152		2.074943287441620e+002,0.000000000000000e+000
	-6.370766646234642e-001,4.548475317665947e+000
153		2.097537938439628e+002,0.000000000000000e+000
	-6.244284122341242e-001,4.501129097480288e+000
154		2.120378629055591e+002,0.000000000000000e+000
	-6.120421948174908e-001,4.454241242345574e+000
155		2.143468038485290e+002,0.000000000000000e+000
	-5.999127694090021e-001,4.407808405179111e+000
156		2.166808875099033e+002,0.000000000000000e+000
	-5.880349901941600e-001,4.361827227179987e+000
157		2.190403876759350e+002,0.000000000000000e+000
	-5.764038070359447e-001,4.316294339326845e+000
158		2.214255811142136e+002,0.000000000000000e+000
	-5.650142640107561e-001,4.271206363821904e+000
159		2.238367476061303e+002,0.000000000000000e+000
	-5.538614979516296e-001,4.226559915485950e+000
160		2.262741699796957e+002,0.000000000000000e+000
	-5.429407370021409e-001,4.182351603102632e+000
161		2.287381341427157e+002,0.000000000000000e+000
	-5.322472991788345e-001,4.138578030715053e+000
162		2.312289291163280e+002,0.000000000000000e+000
	-5.217765909457057e-001,4.095235798875365e+000
163		2.337468470689040e+002,0.000000000000000e+000
	-5.115241057965250e-001,4.052321505848624e+000
164		2.362921833503204e+002,0.000000000000000e+000
	-5.014854228531931e-001,4.009831748771717e+000
165		2.388652365266029e+002,0.000000000000000e+000
	-4.916562054705764e-001,3.967763124769931e+000
166		2.414663084149482e+002,0.000000000000000e+000
	-4.820321998602140e-001,3.926112232030675e+000
167		2.440957041191267e+002,0.000000000000000e+000
	-4.726092337193677e-001,3.884875670836379e+000
168		2.467537320652711e+002,0.000000000000000e+000
	-4.633832148807642e-001,3.844050044558514e+000
169		2.494407040380545e+002,0.000000000000000e+000
	-4.543501299681338e-001,3.803631960610630e+000
170		2.521569352172624e+002,0.000000000000000e+000
	-4.455060430734648e-001,3.763618031366832e+000
171		2.549027442147633e+002,0.000000000000000e+000
	-4.368470944410774e-001,3.724004875040976e+000
172		2.576784531118813e+002,0.000000000000000e+000
	-4.283694991705715e-001,3.684789116532215e+000
173		2.604843874971763e+002,0.000000000000000e+000
	-4.200695459336430e-001,3.645967388235420e+000
174		2.633208765046350e+002,0.000000000000000e+000
	-4.119435957031783e-001,3.607536330817936e+000
175		2.661882528522785e+002,0.000000000000000e+000
	-4.039880805001985e-001,3.569492593963446e+000
176		2.690868528811893e+002,0.000000000000000e+000
	-3.961995021539906e-001,3.531832837086370e+000
177		2.720170165949645e+002,0.000000000000000e+000
	-3.885744310790642e-001,3.494553730012683e+000
178		2.749790876995972e+002,0.000000000000000e+000
	-3.811095050647282e-001,3.457651953633445e+000
179		2.779734136437937e+002,0.000000000000000e+000
	-3.738014280837660e-001,3.421124200528027e+000
180		2.810003456597286e+002,0.000000000000000e+000
	-3.666469691133898e-001,3.384967175560576e+000
181		2.840602388042441e+002,0.000000000000000e+000
	-3.596429609732468e-001,3.349177596448499e+000
182		2.871534520004979e+002,0.000000000000000e+000
	-3.527862991782058e-001,3.313752194304698e+000
183		2.902803480800646e+002,0.000000000000000e+000
	-3.460739408095606e-001,3.278687714156035e+000
184		2.934412938254956e+002,0.000000000000000e+000
	-3.395029033960100e-001,3.243980915433781e+000
185		2.966366600133425e+002,0.000000000000000e+000
	-3.330702638179446e-001,3.209628572444274e+000
186		2.998668214576488e+002,0.000000000000000e+000
	-3.267731572195771e-001,3.175627474813098e+000
187		3.031321570539153e+002,0.000000000000000e+000
	-3.206087759431284e-001,3.141974427908565e+000
188		3.064330498235444e+002,0.000000000000000e+000
	-3.145743684754052e-001,3.108666253243428e+000
189		3.097698869587679e+002,0.000000000000000e+000
	-3.086672384096119e-001,3.075699788854820e+000
190		3.131430598680649e+002,0.000000000000000e+000
	-3.028847434243289e-001,3.043071889664986e+000
191		3.165529642220730e+002,0.000000000000000e+000
	-2.972242942762478e-001,3.010779427820751e+000
192		3.200000000000009e+002,0.000000000000000e+000
	-2.916833538105266e-001,2.978819293016670e+000
193		3.234845715365450e+002,0.000000000000000e+000
	-2.862594359831974e-001,2.947188392796306e+000
194		3.270070875693182e+002,0.000000000000000e+000
	-2.809501049024448e-001,2.915883652839341e+000
195		3.305679612867940e+002,0.000000000000000e+000
	-2.757529738813673e-001,2.884902017228058e+000
196		3.341676103767733e+002,0.000000000000000e+000
	-2.706657045076781e-001,2.854240448699954e+000
197		3.378064570753792e+002,0.000000000000000e+000
	-2.656860057301174e-001,2.823895928883701e+000
198		3.414849282165845e+002,0.000000000000000e+000
	-2.608116329549830e-001,2.793865458517985e+000
199		3.452034552822793e+002,0.000000000000000e+000
	-2.560403871599419e-001,2.764146057656831e+000
200		3.489624744528834e+002,0.000000000000000e+000
	-2.513701140244393e-001,2.734734765860935e+000
201		3.527624266585100e+002,0.000000000000000e+000
	-2.467987030703398e-001,2.705628642374336e+000
202		3.566037576306866e+002,0.000000000000000e+000
	-2.423240868196217e-001,2.676824766286700e+000
203		3.604869179546384e+002,0.000000000000000e+000
	-2.379442399651452e-001,2.648320236684128e+000
204		3.644123631221423e+002,0.000000000000000e+000
	-2.336571785547221e-001,2.620112172786890e+000
205		3.683805535849555e+002,0.000000000000000e+000
	-2.294609591926928e-001,2.592197714075894e+000
206		3.723919548088258e+002,0.000000000000000e+000
	-2.253536782477568e-001,2.564574020403825e+000
207		3.764470373280910e+002,0.000000000000000e+000
	-2.213334710842219e-001,2.537238272101888e+000
208		3.805462768008718e+002,0.000000000000000e+000
	-2.173985112967785e-001,2.510187670068376e+000
209		3.846901540648661e+002,0.000000000000000e+000
	-2.135470099656232e-001,2.483419435852170e+000
210		3.888791551937512e+002,0.000000000000000e+000
	-2.097772149207913e-001,2.456930811722771e+000
211		3.931137715541996e+002,0.000000000000000e+000
	-2.060874100221781e-001,2.430719060733793e+000
212		3.973944998635161e+002,0.000000000000000e+000
	-2.024759144486552e-001,2.404781466773841e+000
213		4.017218422479023e+002,0.000000000000000e+000
	-1.989410820035573e-001,2.379115334610958e+000
214		4.060963063013558e+002,0.000000000000000e+000
	-1.954813004299467e-001,2.353717989927588e+000
215		4.105184051452102e+002,0.000000000000000e+000
	-1.920949907390650e-001,2.328586779346324e+000
216		4.149886574883243e+002,0.000000000000000e+000
	-1.887806065517452e-001,2.303719070450200e+000
217		4.195075876879258e+002,0.000000000000000e+000
	-1.855366334499422e-001,2.279112251791901e+000
218		4.240757258111185e+002,0.000000000000000e+000
	-1.823615883415641e-001,2.254763732899562e+000
219		4.286936076970582e+002,0.000000000000000e+000
	-1.792540188350813e-001,2.230670944271481e+000
220		4.333617750198069e+002,0.000000000000000e+000
	-1.762125026284593e-001,2.206831337366907e+000
221		4.380807753518703e+002,0.000000000000000e+000
	-1.732356469065053e-001,2.183242384589903e+000
222		4.428511622284275e+002,0.000000000000000e+000
	-1.703220877504919e-001,2.159901579265352e+000
223		4.476734952122609e+002,0.000000000000000e+000
	-1.674704895585819e-001,2.136806435611106e+000
224		4.525483399593917e+002,0.000000000000000e+000
	-1.646795444779627e-001,2.113954488703541e+000
225		4.574762682854317e+002,0.000000000000000e+000
	-1.619479718458479e-001,2.091343294436342e+000
226		4.624578582326563e+002,0.000000000000000e+000
	-1.592745176419612e-001,2.068970429476792e+000
227		4.674936941378084e+002,0.000000000000000e+000
	-1.566579539511395e-001,2.046833491214386e+000
228		4.725843667006412e+002,0.000000000000000e+000
	-1.540970784361662e-001,2.024930097706431e+000
229		4.777304730532061e+002,0.000000000000000e+000
	-1.515907138203829e-001,2.003257887617849e+000
230		4.829326168298967e+002,0.000000000000000e+000
	-1.491377073805325e-001,1.981814520157457e+000
231		4.881914082382537e+002,0.000000000000000e+000
	-1.467369304480144e-001,1.960597675010035e+000
232		4.935074641305425e+002,0.000000000000000e+000
	-1.443872779208277e-001,1.939605052263005e+000
233		4.988814080761093e+002,0.000000000000000e+000
	-1.420876677851766e-001,1.918834372331617e+000
234		5.043138704345252e+002,0.000000000000000e+000
	-1.398370406453751e-001,1.898283375878691e+000
235		5.098054884295270e+002,0.000000000000000e+000
	-1.376343592617104e-001,1.877949823731001e+000
236		5.153569062237630e+002,0.000000000000000e+000
	-1.354786081006978e-001,1.857831496794574e+000
237		5.209687749943529e+002,0.000000000000000e+000
	-1.333687928899963e-001,1.837926195962723e+000
238		5.266417530092704e+002,0.000000000000000e+000
	-1.313039401845799e-001,1.818231742025773e+000
239		5.323765057045573e+002,0.000000000000000e+000
	-1.292830969398437e-001,1.798745975573581e+000
240		5.381737057623790e+002,0.000000000000000e+000
	-1.273053300964193e-001,1.779466756900263e+000
241		5.440340331899292e+002,0.000000000000000e+000
	-1.253697261657862e-001,1.760391965901079e+000
242		5.499581753991947e+002,0.000000000000000e+000
	-1.234753908314588e-001,1.741519501970060e+000
243		5.559468272875878e+002,0.000000000000000e+000
	-1.216214485560840e-001,1.722847283896954e+000
244		5.620006913194576e+002,0.000000000000000e+000
	-1.198070421927469e-001,1.704373249756657e+000
245		5.681204776084886e+002,0.000000000000000e+000
	-1.180313326066198e-001,1.686095356801729e+000
246		5.743069040009962e+002,0.000000000000000e+000
	-1.162934983068453e-001,1.668011581352005e+000
247		5.805606961601295e+002,0.000000000000000e+000
	-1.145927350793272e-001,1.650119918679195e+000
248		5.868825876509916e+002,0.000000000000000e+000
	-1.129282556318003e-001,1.632418382894002e+000
249		5.932733200266854e+002,0.000000000000000e+000
	-1.112992892440161e-001,1.614905006829702e+000
250		5.997336429152980e+002,0.000000000000000e+000
	-1.097050814252043e-001,1.597577841923226e+000
251		6.062643141078311e+002,0.000000000000000e+000
	-1.081448935786966e-001,1.580434958098238e+000
252		6.128660996470892e+002,0.000000000000000e+000
	-1.066180026716666e-001,1.563474443642292e+000
253		6.195397739175363e+002,0.000000000000000e+000
	-1.051237009145325e-001,1.546694405088090e+000
254		6.262861197361302e+002,0.000000000000000e+000
	-1.036612954432030e-001,1.530092967088024e+000
255		6.331059284441465e+002,0.000000000000000e+000
	-1.022301080095076e-001,1.513668272292989e+000
256		6.400000000000022e+002,0.000000000000000e+000
	-1.008294746802676e-001,1.497418481226703e+000
257		6.469691430730904e+002,0.000000000000000e+000
	-9.945874553511658e-002,1.481341772160363e+000
258		6.540141751386368e+002,0.000000000000000e+000
	-9.811728437966849e-002,1.465436340987310e+000
259		6.611359225735884e+002,0.000000000000000e+000
	-9.680446845754887e-002,1.449700401095697e+000
260		6.683352207535470e+002,0.000000000000000e+000
	-9.551968817117995e-002,1.434132183240422e+000
261		6.756129141507588e+002,0.000000000000000e+000
	-9.426234680745438e-002,1.418729935417275e+000
262		6.829698564331694e+002,0.000000000000000e+000
	-9.303186026954791e-002,1.403491922732144e+000
263		6.904069105645590e+002,0.000000000000000e+000
	-9.182765681350702e-002,1.388416427273626e+000
264		6.979249489057672e+002,0.000000000000000e+000
	-9.064917678995244e-002,1.373501747983482e+000
265		7.055248533170205e+002,0.000000000000000e+000
	-8.949587239249013e-002,1.358746200526923e+000
266		7.132075152613736e+002,0.000000000000000e+000
	-8.836720740964665e-002,1.344148117163172e+000
267		7.209738359092772e+002,0.000000000000000e+000
	-8.726265698294355e-002,1.329705846615866e+000
268		7.288247262442851e+002,0.000000000000000e+000
	-8.618170736792763e-002,1.315417753941688e+000
269		7.367611071699114e+002,0.000000000000000e+000
	-8.512385570384140e-002,1.301282220401674e+000
270		7.447839096176521e+002,0.000000000000000e+000
	-8.408860978420307e-002,1.287297643329850e+000
271		7.528940746561825e+002,0.000000000000000e+000
	-8.307548783363927e-002,1.273462436004195e+000
272		7.610925536017440e+002,0.000000000000000e+000
	-8.208401829017475e-002,1.259775027515502e+000
273		7.693803081297326e+002,0.000000000000000e+000
	-8.111373958990953e-002,1.246233862637666e+000
274		7.777583103875028e+002,0.000000000000000e+000
	-8.016419995772139e-002,1.232837401697623e+000
275		7.862275431083996e+002,0.000000000000000e+000
	-7.923495720240226e-002,1.219584120445859e+000
276		7.947889997270326e+002,0.000000000000000e+000
	-7.832557851509137e-002,1.206472509926698e+000
277		8.034436844958051e+002,0.000000000000000e+000
	-7.743564027066441e-002,1.193501076348980e+000
278		8.121926126027121e+002,0.000000000000000e+000
	-7.656472783736490e-002,1.180668340956686e+000
279		8.210368102904209e+002,0.000000000000000e+000
	-7.571243538541239e-002,1.167972839900642e+000
280		8.299773149766490e+002,0.000000000000000e+000
	-7.487836570328454e-002,1.155413124109657e+000
281		8.390151753758521e+002,0.000000000000000e+000
	-7.406213001598871e-002,1.142987759163191e+000
282		8.481514516222374e+002,0.000000000000000e+000
	-7.326334780668731e-002,1.130695325162833e+000
283		8.573872153941169e+002,0.000000000000000e+000
	-7.248164664400747e-002,1.118534416605712e+000
284		8.667235500396143e+002,0.000000000000000e+000
	-7.171666201008975e-002,1.106503642256655e+000
285		8.761615507037410e+002,0.000000000000000e+000
	-7.096803713676536e-002,1.094601625023699e+000
286		8.857023244568555e+002,0.000000000000000e+000
	-7.023542283815232e-002,1.082827001830594e+000
287		8.953469904245222e+002,0.000000000000000e+000
	-6.951847735359706e-002,1.071178423491745e+000
288		9.050966799187839e+002,0.000000000000000e+000
	-6.881686619050242e-002,1.059654554588235e+000
289		9.149525365708639e+002,0.000000000000000e+000
	-6.813026197039562e-002,1.048254073342605e+000
290		9.249157164653130e+002,0.000000000000000e+000
	-6.745834427908903e-002,1.036975671496180e+000
291		9.349873882756174e+002,0.000000000000000e+000
	-6.680079951922835e-002,1.025818054185038e+000
292		9.451687334012829e+002,0.000000000000000e+000
	-6.615732076699032e-002,1.014779939817743e+000
293		9.554609461064129e+002,0.000000000000000e+000
	-6.552760762986054e-002,1.003860059954150e+000
294		9.658652336597939e+002,0.000000000000000e+000
	-6.491136611032289e-002,9.930571591836497e-001
295		9.763828164765080e+002,0.000000000000000e+000
	-6.430830846875324e-002,9.823699950045466e-001
296		9.870149282610856e+002,0.000000000000000e+000
	-6.371815309267959e-002,9.717973377046292e-001
297		9.977628161522192e+002,0.000000000000000e+000
	-6.314062436604218e-002,9.613379702411748e-001
298		1.008627740869051e+003,0.000000000000000e+000
	-6.257545254248953e-002,9.509906881236248e-001
299		1.019610976859055e+003,0.000000000000000e+000
	-6.202237362185770e-002,9.407542992943263e-001
300		1.030713812447527e+003,0.000000000000000e+000
	-6.148112922767268e-002,9.306276240131979e-001